What is 2 + 2?
What color is the sky on a clear day?
What is the capital of France?
Who wrote Romeo and Juliet?
What is water's chemical formula?
How many sides does a triangle have?
What temperature does water boil at sea level in Celsius?
Who was the first president of the United States?
What is the largest planet in our solar system?
What year did World War II end?
What is the speed of light?
What is Earth's primary satellite called?
How many hours are in a day?
What is the smallest prime number?
What gas do humans breathe to survive?
What is the opposite of hot?
What organ pumps blood in humans?
What is the largest ocean?
What language is spoken in Brazil?
What is the tallest mountain on Earth?
If you have 10 apples and eat 3, how many remain?
What comes after Tuesday?
What is the square root of 9?
Is Paris in France?
What planet is closest to the sun?
Do fish live in water?
What is the freezing point of water?
Is 100 greater than 50?
What is 5 times 5?
What shape has four equal sides?
Who painted the Mona Lisa?
What is the capital of Japan?
Does the Earth revolve around the Sun?
What is the primary color that mixing blue and yellow makes?
How many continents are there?
What is 20 divided by 4?
Is ice cold?
What is the capital of Italy?
What animal is known as man's best friend?
What metal is the best conductor of electricity?
Is fire hot?
What is the largest land animal?
What day comes before Friday?
What is 100 minus 1?
Is water wet?
What season comes after summer?
What is the atomic number of hydrogen?
Is the sun a star?
What is the chemical symbol for gold?
How many days are in a year (non-leap)?
What direction does the sun rise?
Is 2 an even number?
What is the capital of England?
Do cats meow?
What color are most emeralds?
How many legs does a spider have?
What is the boiling point of water in Fahrenheit?
Is steel hard?
What is the main ingredient in bread?
Do birds fly?
What shape is a circle?
Is midnight at 12 AM or 12 PM?
What is 1 plus 1?
Is snow cold?
What gas do plants produce through photosynthesis?
How many months have 31 days?
Is the Pacific an ocean?
What is 10 minus 5?
Do humans need oxygen?
What is the capital of Germany?
Is glass transparent?
What comes after the number 9?
Does gravity pull objects down?
What is the primary gas in Earth's atmosphere?
Is Antarctica cold?
What is 3 times 3?
Do deserts have little rain?
What planet is known as the Red Planet?
Is copper a metal?
What is the largest organ in the human body?
Does the moon orbit Earth?
What is the chemical symbol for water?
Is Mount Everest tall?
What is 50 divided by 2?
Do whales live in the ocean?
Is wood flammable?
What color is grass typically?
How many cents in a dollar?
Is diamond hard?
What direction is opposite of north?
Do flowers bloom?
What is the capital of Spain?
Is honey sweet?
What is 7 plus 8?
Does the alphabet start with A?
Is lightning bright?
What gas makes up most of the sun?
Is iron magnetic?
What is the smallest continent?
Do vegetables grow from plants?
Is midnight darker than noon?
What is 12 times 2?
Is sugar sweet?
What planet has rings?
Do trees have roots?
Is concrete hard?
What is the capital of Australia?
Does ice melt when heated?
What is 15 divided by 3?
What color are bananas typically?
What is the capital of England?
Who invented the printing press?
What is the chemical formula for salt?
How many legs does a dog have?
What temperature does ice melt at in Celsius?
Who was the 16th President of the United States?
What is the largest mammal on Earth?
What year did the American Revolution begin?
What is the speed of sound in air approximately?
What is Earth's nearest star called?
How many minutes are in two hours?
What is the largest prime number under 20?
What gas do humans exhale primarily?
What is the opposite of left?
What organ filters blood in humans?
What is the smallest ocean?
What language is spoken in Portugal?
What is the second tallest mountain on Earth?
