What is the speed of light in a vacuum?
What is the chemical formula for water?
How many planets are in our solar system?
What is the boiling point of water at sea level?
What element has the atomic number 6?
Who discovered penicillin?
What is the powerhouse of the cell?
What is Newton's first law of motion?
What is the chemical symbol for gold?
How many chromosomes do humans have?
What is the largest organ in the human body?
What planet is closest to the sun?
What is the freezing point of water in Celsius?
What gas do plants absorb during photosynthesis?
What is the most abundant element in the universe?
Who proposed the theory of general relativity?
What is the smallest unit of life?
How many bones are in the adult human body?
What is the atomic number of hydrogen?
What is the name of our galaxy?
What causes tides on Earth?
What is the hardest natural substance?
How long does it take Earth to orbit the sun?
What is the largest planet in our solar system?
What vitamin does sunlight help produce in humans?
What is the chemical formula for table salt?
How many elements are on the periodic table?
What is the speed of sound in air at sea level?
What gas makes up most of Earth's atmosphere?
What is the human body's normal temperature in Fahrenheit?
Who discovered the structure of DNA?
What is the closest star to Earth?
What is the charge of an electron?
How many moons does Earth have?
What element is essential for thyroid function?
What is the pH of pure water?
What is the largest bone in the human body?
Who invented the telescope?
What is the main component of the sun?
How many chambers does the human heart have?
What is the melting point of ice?
What causes the seasons on Earth?
What is the chemical formula for glucose?
How far is the moon from Earth on average?
What is the smallest planet in our solar system?
Who discovered gravity?
What is the function of red blood cells?
What element has the symbol Fe?
How many teeth do adult humans have?
What is the speed of Earth's rotation at the equator?
What causes a rainbow to form?
What is the densest element?
How old is the Earth approximately?
What is the main function of the liver?
Who invented the light bulb?
What is the atomic mass of carbon?
How many valence electrons does oxygen have?
What is the largest desert on Earth?
What causes earthquakes?
What is the human genome made of?
Who discovered radioactivity?
What is the normal resting heart rate for adults?
How many lobes does the human brain have?
What element is liquid at room temperature?
What is the escape velocity of Earth?
How long is a human pregnancy on average?
What causes lightning?
What is the mass of the sun?
Who discovered electrons?
What is the function of white blood cells?
How many amino acids make up proteins?
What is the deepest part of the ocean?
What causes volcanoes to erupt?
What is the charge of a proton?
How many continents are there on Earth?
What is the most common blood type?
Who proposed the heliocentric model?
What is the density of water?
How fast does light travel in one year?
What causes the northern lights?
What is the formula for calculating force?
How many taste buds do humans have approximately?
What is the diameter of Earth?
Who discovered X-rays?
What is the function of insulin?
How many cranial nerves do humans have?
What element is needed for rust to form?
What is the mass of an electron?
How long does it take light to reach Earth from the sun?
What causes sound to travel?
What is the function of the kidneys?
Who invented the periodic table?
What is the tallest mountain on Earth?
How many ribs do humans have?
What causes wind to blow?
What is the chemical formula for methane?
How far is Mars from the sun?
What is the function of DNA?
Who discovered the neutron?
What is the temperature of the sun's core?
